<?xml version="1.0"?>
<VTKFile type="UnstructuredGrid"  version="0.1"  >
<UnstructuredGrid>
<Piece  NumberOfPoints="858" NumberOfCells="1634">
<Points>
<DataArray  type="Float64"  NumberOfComponents="3"  format="ascii">0 0 0  0.1 0 0  0.1 0.1 0  0 0.1 0  0.04 0.04 0  0.06 0.04 0  0.06 0.06 0  0.04 0.06 0  0.004999999999990302 0 0  0.009999999999982483 0 0  0.01499999999997171 0 0  0.019999999999956 0 0  0.02499999999994164 0 0  0.02999999999992728 0 0  0.03499999999991292 0 0  0.03999999999989585 0 0  0.0449999999998815 0 0  0.0499999999998685 0 0  0.05499999999988016 0 0  0.05999999999989426 0 0  0.06499999999990864 0 0  0.06999999999991974 0 0  0.07499999999993355 0 0  0.07999999999994738 0 0  0.0849999999999585 0 0  0.08999999999997287 0 0  0.0949999999999878 0 0  0.1 0.004999999999990302 0  0.1 0.009999999999982483 0  0.1 0.01499999999997171 0  0.1 0.019999999999956 0  0.1 0.02499999999994164 0  0.1 0.02999999999992728 0  0.1 0.03499999999991292 0  0.1 0.03999999999989585 0  0.1 0.0449999999998815 0  0.1 0.0499999999998685 0  0.1 0.05499999999988016 0  0.1 0.05999999999989426 0  0.1 0.06499999999990864 0  0.1 0.06999999999991974 0  0.1 0.07499999999993355 0  0.1 0.07999999999994738 0  0.1 0.0849999999999585 0  0.1 0.08999999999997287 0  0.1 0.0949999999999878 0  0.09500000000001382 0.1 0  0.09000000000002764 0.1 0  0.08500000000004147 0.1 0  0.08000000000005529 0.1 0  0.07500000000006912 0.1 0  0.07000000000008294 0.1 0  0.06500000000009676 0.1 0  0.06000000000011058 0.1 0  0.05500000000012441 0.1 0  0.05000000000013687 0.1 0  0.04500000000012466 0.1 0  0.04000000000011003 0.1 0  0.03500000000009511 0.1 0  0.03000000000008349 0.1 0  0.02500000000006912 0.1 0  0.02000000000005478 0.1 0  0.01500000000004312 0.1 0  0.01000000000002821 0.1 0  0.005000000000012744 0.1 0  0 0.09500000000001382 0  0 0.09000000000002764 0  0 0.08500000000004147 0  0 0.08000000000005529 0  0 0.07500000000006912 0  0 0.07000000000008294 0  0 0.06500000000009676 0  0 0.06000000000011058 0  0 0.05500000000012441 0  0 0.05000000000013687 0  0 0.04500000000012466 0  0 0.04000000000011003 0  0 0.03500000000009511 0  0 0.03000000000008349 0  0 0.02500000000006912 0  0 0.02000000000005478 0  0 0.01500000000004312 0  0 0.01000000000002821 0  0 0.005000000000012744 0  0.0424999999999956 0.04 0  0.04499999999998712 0.04 0  0.04749999999997729 0.04 0  0.04999999999997153 0.04 0  0.05249999999997932 0.04 0  0.05499999999998441 0.04 0  0.05749999999999492 0.04 0  0.06 0.0424999999999956 0  0.06 0.04499999999998712 0  0.06 0.04749999999997729 0  0.06 0.04999999999997153 0  0.06 0.05249999999997932 0  0.06 0.05499999999998441 0  0.06 0.05749999999999492 0  0.05750000000000237 0.06 0  0.05500000000001017 0.06 0  0.05250000000001932 0.06 0  0.05000000000002441 0.06 0  0.04750000000002135 0.06 0  0.04500000000001424 0.06 0  0.04250000000000441 0.06 0  0.04 0.05750000000000237 0  0.04 0.05500000000001017 0  0.04 0.05250000000001932 0  0.04 0.05000000000002441 0  0.04 0.04750000000002135 0  0.04 0.04500000000001424 0  0.04 0.04250000000000441 0  0.06187886849276387 0.0457889512301654 0  0.04578895123016581 0.03812113150723647 0  0.05421104876983213 0.06187886849276415 0  0.03812113150723612 0.05421104876983181 0  0.03778047413989571 0.04127747509006384 0  0.037897135916841 0.03870578677238512 0  0.05872252490993572 0.03778047413989539 0  0.06129421322761476 0.03789713591684067 0  0.04127747509006353 0.06221952586010501 0  0.03870578677238387 0.06210286408315968 0  0.06221952586010532 0.05872252490993602 0  0.06210286408315999 0.06129421322761602 0  0.03549185440087531 0.04000137166833496 0  0.03564543614706482 0.03721061549645969 0  0.05999862833166477 0.03549185440087474 0  0.06278938450354028 0.03564543614706427 0  0.04000137166833419 0.06450814559912643 0  0.03721061549645786 0.06435456385293667 0  0.06450814559912699 0.05999862833166555 0  0.0643545638529372 0.06278938450354211 0  0.03297280212560913 0.03863825068796788 0  0.03295887227766713 0.03567307513721269 0  0.06136174931203194 0.03297280212560834 0  0.06432692486278739 0.03295887227766633 0  0.0386382506879665 0.06702719787439348 0  0.03567307513721023 0.06704112772233545 0  0.06702719787439421 0.06136174931203335 0  0.0670411277223362 0.06432692486278985 0  0.06420798626520105 0.06579112966937525 0  0.06706583447830623 0.06744007183514764 0  0.03420887033062492 0.06420798626520047 0  0.03255992816485263 0.06706583447830547 0  0.06579112966937234 0.03579201373480029 0  0.06744007183514408 0.0329341655216962 0  0.03579201373480088 0.03420887033062783 0  0.03293416552169703 0.03255992816485617 0  0.03581938213032206 0.03099905712434335 0  0.06900094287565703 0.03581938213032138 0  0.03099905712433933 0.06418061786967937 0  0.06418061786968006 0.06900094287566108 0  0.06281942061237505 0.03025931850996253 0  0.03025931850996347 0.03718057938762487 0  0.06974068149004092 0.06281942061237708 0  0.03718057938762288 0.06974068149004005 0  0.06967436557688252 0.05970232670585208 0  0.05970232670585106 0.03032563442312104 0  0.04029767329414774 0.06967436557688163 0  0.03032563442312196 0.0402976732941487 0  0.03289862372061571 0.02926628791900492 0  0.07073371208099552 0.03289862372061482 0  0.02926628791900027 0.06710137627938671 0  0.06710137627938757 0.07073371208100018 0  0.03587842040465999 0.02771195097569388 0  0.07228804902430665 0.03587842040465913 0  0.02771195097568903 0.06412157959534159 0  0.06412157959534248 0.07228804902431142 0  0.02748553625790981 0.03880590079606561 0  0.02759114554242047 0.0421943632226905 0  0.0611940992039342 0.02748553625790878 0  0.05780563677730931 0.0275911455424194 0  0.03880590079606408 0.07251446374209461 0  0.04219436322268996 0.07240885445758409 0  0.07251446374209562 0.06119409920393586 0  0.07240885445758519 0.05780563677730995 0  0.0776552776266015 0.004185633553245238 0  0.004185633553245733 0.02234472237340009 0  0.09581436644675542 0.07765527762660331 0  0.02234472237339805 0.09581436644675478 0  0.03297648961029812 0.02580935215302473 0  0.02982134719934618 0.02753251561508388 0  0.0741906478469759 0.03297648961029716 0  0.07246748438491663 0.02982134719934512 0  0.02580935215301899 0.06702351038970422 0  0.02753251561507858 0.07017865280065717 0  0.06702351038970529 0.07419064784698162 0  0.07017865280065823 0.07246748438492182 0  0.03622661085459556 0.02463480489453393 0  0.07536519510546832 0.03622661085459371 0  0.02463480489453014 0.06377338914540509 0  0.06377338914540703 0.07536519510547203 0  0.05946824489433492 0.02454596195972174 0  0.02454596195972274 0.04053175510566483 0  0.07545403804028356 0.0594682448943362 0  0.04053175510566371 0.07545403804028251 0  0.02987459661911368 0.02386679671063077 0  0.07613320328936986 0.02987459661911258 0  0.02386679671062437 0.07012540338088952 0  0.07012540338089082 0.07613320328937617 0  0.05586662221324582 0.02468131126279576 0  0.07531868873720976 0.05586662221324613 0  0.02468131126279685 0.04413337778675408 0  0.04413337778675389 0.07531868873720861 0  0.07430350918264429 0.02663961888517666 0  0.02663961888517796 0.02569649081735628 0  0.07336038111482771 0.07430350918264995 0  0.02569649081735029 0.0733603811148264 0  0.02664731940968077 0.02186977625471112 0  0.07813022374528952 0.02664731940967955 0  0.02186977625470408 0.07335268059032331 0  0.07335268059032482 0.07813022374529628 0  0.0214783969082216 0.04233940057630205 0  0.02158661909521315 0.04598616065811437 0  0.05766059942369771 0.02147839690822072 0  0.05401383934188557 0.02158661909521232 0  0.04233940057630128 0.07852160309178452 0  0.04598616065811446 0.07841338090479308 0  0.07852160309178545 0.05766059942369866 0  0.07841338090479401 0.05401383934188565 0  0.07859542063213966 0.0613228379155465 0  0.03867716208445332 0.07859542063213873 0  0.06132283791554466 0.02140457936786634 0  0.02140457936786728 0.03867716208445496 0  0.07515246830876531 0.0523309727405189 0  0.05233097274051941 0.02484753169124039 0  0.04766902725948128 0.07515246830876417 0  0.02484753169124142 0.04766902725948062 0  0.04273462937805293 0.003990054949471813 0  0.09600994505053267 0.04273462937805227 0  0.003990054949470486 0.05726537062195083 0  0.05726537062195145 0.09600994505053401 0  0.01770256549184465 0.004011717123741483 0  0.09598828287625862 0.01770256549184446 0  0.004011717123739581 0.08229743450816747 0  0.0822974345081678 0.09598828287626039 0  0.0782485034915293 0.05036162634517635 0  0.05036162634517707 0.02175149650847717 0  0.04963837365482404 0.0782485034915284 0  0.02175149650847795 0.04963837365482315 0  0.07622272276644025 0.02323988758801736 0  0.02323988758801874 0.02377727723356038 0  0.02377727723355373 0.07676011241198653 0  0.07676011241198799 0.07622272276644641 0  0.06149042832008576 0.0700106228367553 0  0.02998937716324568 0.06149042832008492 0  0.07001062283675304 0.03850957167991526 0  0.03850957167991603 0.02998937716324819 0  0.05198816810110152 0.0184072632634445 0  0.04818412350633268 0.01856063665800724 0  0.01840726326344501 0.04801183189889857 0  0.01856063665800763 0.05181587649366783 0  0.08159273673656256 0.05198816810110134 0  0.08143936334199994 0.04818412350633171 0  0.04801183189889896 0.08159273673656196 0  0.05181587649366899 0.08143936334199942 0  0.05114932416080831 0.03782935828367837 0  0.0621706417163224 0.05114932416080793 0  0.04885067583919056 0.06217064171632238 0  0.03782935828367834 0.04885067583919024 0  0.06752058444043749 0.003962292751382651 0  0.003962292751382963 0.03247941555956443 0  0.09603770724861867 0.06752058444043864 0  0.0324794155595634 0.0960377072486184 0  0.03298022797863054 0.004883844397499499 0  0.09511615560250361 0.0329802279786301 0  0.06701977202137831 0.09511615560250433 0  0.004883844397498691 0.06701977202137781 0  0.07012896824689349 0.07985269697303315 0  0.0298710317531115 0.02014730302697392 0  0.07985269697302638 0.02987103175310995 0  0.02014730302696712 0.07012896824689165 0  0.081873529831062 0.05943720353259833 0  0.05943720353259675 0.0181264701689448
[...]
<PointData  Scalars="f_27"> 
<DataArray  type="Float64"  Name="f_27"  format="ascii">3.7000000000000000e+01  3.7423125822092672e+01  3.7423070522414044e+01  3.7000000000000000e+01  4.2210962949626797e+01  4.2242155067269039e+01  4.2241888097862294e+01  4.2212393709200548e+01  3.7113754939669157e+01  3.7213506513749039e+01  3.7304322163431429e+01  3.7388781595422024e+01  3.7468371389791805e+01  3.7541488302379946e+01  3.7606900384772864e+01  3.7660041924561376e+01  3.7695993498751996e+01  3.7712205374134541e+01  3.7707830997180565e+01  3.7686087442889942e+01  3.7651181186716890e+01  3.7606617245804209e+01  3.7559502251139136e+01  3.7514984770717703e+01  3.7476838748957491e+01  3.7447927045827576e+01  3.7430027148056595e+01  3.7429880003275393e+01  3.7448179486644918e+01  3.7477716874172565e+01  3.7516345884060449e+01  3.7561742816879033e+01  3.7609521154039548e+01  3.7656239309137106e+01  3.7695633191472226e+01  3.7721497475304425e+01  3.7730326246097917e+01  3.7720565070651716e+01  3.7694900380246025e+01  3.7657148574821598e+01  3.7610544364998340e+01  3.7561968226179665e+01  3.7516418698421411e+01  3.7477569039765967e+01  3.7448205460083777e+01  3.7430049718882131e+01  3.7429742493155317e+01  3.7447777807701257e+01  3.7476851202055954e+01  3.7514758041167049e+01  3.7559108154853014e+01  3.7605406681122744e+01  3.7650065288288097e+01  3.7686615267658361e+01  3.7708567223433015e+01  3.7712030107116128e+01  3.7694919014271605e+01  3.7659199966147547e+01  3.7607748562303549e+01  3.7542428704939717e+01  3.7468550998258159e+01  3.7388919108976467e+01  3.7304205963655583e+01  3.7213451619191098e+01  3.7113814392477146e+01  3.7000000000000000e+01  3.7000000000000000e+01  3.7000000000000000e+01  3.7000000000000000e+01  3.7000000000000000e+01  3.7000000000000000e+01  3.7000000000000000e+01  3.7000000000000000e+01  3.7000000000000000e+01  3.7000000000000000e+01  3.7000000000000000e+01  3.7000000000000000e+01  3.7000000000000000e+01  3.7000000000000000e+01  3.7000000000000000e+01  3.7000000000000000e+01  3.7000000000000000e+01  3.7000000000000000e+01  3.7000000000000000e+01  4.3094447618701146e+01  4.3757196147058828e+01  4.3949554848239089e+01  4.3944850034616259e+01  4.3958024651992105e+01  4.3762997865667607e+01  4.3117519264947575e+01  4.3118037097035625e+01  4.3776563306658147e+01  4.3970597725898138e+01  4.3950352130588612e+01  4.3967109182759259e+01  4.3773750215863693e+01  4.3117240264953310e+01  4.3116495928782690e+01  4.3759817336661236e+01  4.3950117685061770e+01  4.3941626378056526e+01  4.3943110324185504e+01  4.3745902499666464e+01  4.3098613385678334e+01  4.3087400755615057e+01  4.3738712435718924e+01  4.3930047471196396e+01  4.3924933828894382e+01  4.3932852445921732e+01  4.3739860744473972e+01  4.3086978479143191e+01  4.2779668093703584e+01  4.2759481015739162e+01  4.2765747264861830e+01  4.2736481991067706e+01  4.1747333308926329e+01  4.1148973455989072e+01  4.1785457965372352e+01  4.1188358240763804e+01  4.1759217073385500e+01  4.1152165180842964e+01  4.1787640596653972e+01  4.1188315863526668e+01  4.0741178473718307e+01  4.0273340314776789e+01  4.0789176317734153e+01  4.0322137009542779e+01  4.0757568932602197e+01  4.0279505950023427e+01  4.0791795391044239e+01  4.0322506669537319e+01  3.9927016006449840e+01  3.9534884855213662e+01  3.9987276797044260e+01  3.9596163011638239e+01  3.9950580378189798e+01  3.9547247067544490e+01  3.9990144770088143e+01  3.9597074800561721e+01  3.9808638188334911e+01  3.9204101612154545e+01  3.9753711089569393e+01  3.9140835016161645e+01  3.9810199123885532e+01  3.9204782287446392e+01  3.9760873502082383e+01  3.9142935474348896e+01  3.9272320580097457e+01  3.9322138334702913e+01  3.9248352328120426e+01  3.9319143896290299e+01  3.9347903941806507e+01  3.9272600648000967e+01  3.9350956244899919e+01  3.9305935959681392e+01  3.9649764738823286e+01  3.9644505435146648e+01  3.9614100392946170e+01  3.9570537889918384e+01  3.8779605605974268e+01  3.8841545560549534e+01  3.8758638364142172e+01  3.8839609724766561e+01  3.8856196749321171e+01  3.8905922187943439e+01  3.8810788551531367e+01  3.8901861394803554e+01  3.8983588990408634e+01  3.9203778932528195e+01  3.9076544921747633e+01  3.9294917243795481e+01  3.9041372922476690e+01  3.9271170316311874e+01  3.9081641896739143e+01  3.9302623968613425e+01  3.7546392940760327e+01  3.7137286039994244e+01  3.7548205364385382e+01  3.7437368595457059e+01  3.8469152148258466e+01  3.8392242836495647e+01  3.8530280997339510e+01  3.8469108122488855e+01  3.8423021915225618e+01  3.8376863906511090e+01  3.8527317678196859e+01  3.8468000369558354e+01  3.8557840825933980e+01  3.8606176227409129e+01  3.8486526568884749e+01  3.8601195274736462e+01  3.8794380908123550e+01  3.8678318004823453e+01  3.8801501304815680e+01  3.8765812945337373e+01  3.8156706945839744e+01  3.8232078002021858e+01  3.8111857830917749e+01  3.8230011613509710e+01  3.8939456428457724e+01  3.8949636031445735e+01  3.8825913003892261e+01  3.8922072360388647e+01  3.8177042553217134e+01  3.8081780529638017e+01  3.8176524321679729e+01  3.8074501375623719e+01  3.7907071547608076e+01  3.7999997668878727e+01  3.7865877907877646e+01  3.7998619375544671e+01  3.8380503794041829e+01  3.8465835120858031e+01  3.8526548564145465e+01  3.8609133861220151e+01  3.8504287451872280e+01  3.8597481460339317e+01  3.8535708405032253e+01  3.8621715707358113e+01  3.8419740087765959e+01  3.8379132255343201e+01  3.8413290973060185e+01  3.8266679197587870e+01  3.9050753113527541e+01  3.9036801106890849e+01  3.9029481034129823e+01  3.8927527790160617e+01  3.7704142936677144e+01  3.7733893130004880e+01  3.7197856526194187e+01  3.7722898942743988e+01  3.7357557296040774e+01  3.7505424130645544e+01  3.7117437003269096e+01  3.7504253155317151e+01  3.8669866962357716e+01  3.8652945488226770e+01  3.8651316821183435e+01  3.8515105758051675e+01  3.7950965540973911e+01  3.7832473903842327e+01  3.7837165144513229e+01  3.7950902873704983e+01  3.9423776479280100e+01  3.9347882925546735e+01  3.9428999765974595e+01  3.9388334796408323e+01  3.8331883957067660e+01  3.8339908800057053e+01  3.8150548734531760e+01  3.8165783500300904e+01  3.8347105744502883e+01  3.8360221695794060e+01  3.8326079359399422e+01  3.8344300210518149e+01  4.2785473958811920e+01  4.2795800555773582e+01  4.2778210960563996e+01  4.2755113461632703e+01  3.7645936642009694e+01  3.7166160183757142e+01  3.7650743341424288e+01  3.7592456121961931e+01  3.7606757813220391e+01  3.7663124563250634e+01  3.7657930862585218e+01  3.7206223654698618e+01  3.8031213551001166e+01  3.7959990899168218e+01  3.8033974983880512e+01  3.7877957962369571e+01  3.8223581603880113e+01  3.8215322016797998e+01  3.8188138749520725e+01  3.8028123589713459e+01  3.7935641894978978e+01  3.8121028426362031e+01  3.8080360927010361e+01  3.8126769062043302e+01  3.7704827375152412e+01  3.7819829182701575e+01  3.7670022970329470e+01  3.7818984573579918e+01  3.7629398297080982e+01  3.7776875065159331e+01  3.7649411926783806e+01  3.7777081823142339e+01  3.7468380562537035e+01  3.7109380303535552e+01  3.7468813521057371e+01  3.7267451861489874e+01  3.7868240946187413e+01  3.8100366031893230e+01  3.8100222872724800e+01  3.8118414275031085e+01  3.8090311013627009e+01  3.7869087611815281e+01  3.8114376269904980e+01  3.8100775716628426e+01  3.7542307566794868e+01  3.7604875131010800e+01  3.7684837976981129e+01  3.7714996498058625e+01  3.7684382558835615e+01  3.7713531929213843e+01  3.7517539529694687e+01  3.7515698304646108e+01  3.9066891067193183e+01  3.9583266533638536e+01  3.9085702416915950e+01  3.9598849718823921e+01  3.8963763864667477e+01  3.9501232103778136e+01  3.9069537707518151e+01  3.9580487124166048e+01  3.7217169934032533e+01  3.7726647344025359e+01  3.7737225152659761e+01  3.7706987283308557e+01  4.1206323167450101e+01  4.1229413069024631e+01  4.1257377467711251e+01  4.1252086797561105e+01  3.8850700875016230e+01  3.8799537022872791e+01  3.8847640332546355e+01  3.8754340084868055e+01  4.1800062942898208e+01  4.1770744982292619e+01  4.1796041385698693e+01  4.1759579940194151e+01  3.7891284223463757e+01  3.7890087932006992e+01  3.7795385590344971e+01  3.7736684664914556e+01  3.7468011925759811e+01  3.7408978489984264e+01  3.7652095506352275e+01  3.7586305316763671e+01  3.7510286650567345e+01  3.7399545964024689e+01  3.7652500141530709e+01  3.7586125281106483e+01  3.7743685830557020e+01  3.7673049515160180e+01  3.7983690292957341e+01  3.7907876936000548e+01  3.7951173879059930e+01  3.7860283917833605e+01  3.7991081545314465e+01  3.7912966499664464e+01  3.9575528873708471e+01  3.9048776514959691e+01  3.9499916680253193e+01  3.8955679483504710e+01  3.9596259504066836e+01  3.9073816038950085e+01  3.9582252150959008e+01  3.9061848350512371e+01  4.0256658419089163e+01  4.0195516401815304e+01  4.0272783411869298e+01  4.0207602162281994e+01  4.0195368935534489e+01  4.0131256995586554e+01  4.0255869237822502e+01  4.0185071624086625e+01  4.0201276476856982e+01  4.0221869714678036e+01  4.0144030878559491e+01  4.0209313364222290e+01  3.7623421406221723e+01  3.7922132338587438e+01  3.7927593450857401e+01  3.7943274409180553e+01  3.8329825662643657e+01  3.8074246139915289e+01  3.8341531822002352e+01  3.8084217442301835e+01  3.8314347610644020e+01  3.8052235647428986e+01  3.8152437639609012e+01  3.7847214826304551e+01  3.7564784895622658e+01  3.7332908450971026e+01  3.7565302454217147e+01  3.7408421341823590e+01  3.7923368224349737e+01  3.7616201045067029e+01  3.7939253333735643e+01  3.7918476253924084e+01  3.7633748930434606e+01  3.7391992111923734e+01  3.7635090454785718e+01  3.7520699668824861e+01  3.8233897575755613e+01  3.8139521540585839e+01  3.8287205998896262e+01  3.8283051697630668e+01  3.7297179577637138e+01  3.7517798369741378e+01  3.7309028079184237e+01  3.7517789610668238e+01  3.7820405025747895e+01  3.7514682076641670e+01  3.7826910615727400e+01  3.7781790632314589e+01  3.7113555084925217e+01  3.7444526605716760e+01  3.7175007021210781e+01  3.7444723914020351e+01  3.8376376495234830e+01  3.8299565572596926e+01  3.8375527586739878e+01  3.8275930473923630e+01  3.7881622025026743e+01  3.7872528876886690e+01  3.7847285937157196e+01  3.7562108524861209e+01  3.7461439129504043e+01  3.7758316053283124e+01  3.7703040353478173e+01  3.7762770698166243e+01  3.8313343721213172e+01  3.8032608328535552e+01  3.7897274953150756e+01  3.7849820357121416e+01  3.8276353229423194e+01  3.7990077336980285e+01  3.7859924631094806e+01  3.7801071468280540e+01  3.8305241037340586e+01  3.8025529448444630e+01  3.7888814343570601e+01  3.7843703141801399e+01  3.8138664672918942e+01  3.7807189676725280e+01  3.7599750379729002e+01  3.7566206516894717e+01  3.7803052507601450e+01  3.7399874420547114e+01  3.7821578817494888e+01  3.7803630549059370e+01  3.7828244121848044e+01  3.7758852693481039e+01  3.7824900720403186e+01  3.7597406082979958e+01  4.0980599244595297e+01  4.0825556763089452e+01  4.0962231632643054e+01  4.0800453540171887e+01  4.0966373980125532e+01  4.0815777608433407e+01  4.0917454540360055e+01  4.0764166578089863e+01  3.7697383808246848e+01  3.7616910379313971e+01  3.7694572052075841e+01  3.7416141129881261e+01  3.7388464812406035e+01  3.7721609701126688e+01  3.7757576552617444e+01  3.7764781992145394e+01  4.0571272523730954e+01  4.0523664853524572e+01  4.0574440366160260e+01  4.0536319177457294e+01  3.7366774046175522e+01  3.7537310991795053e+01  3.7536719378941918e+01  3.7291264064801304e+01  3.9959527518874111e+01  4.0007949343674099e+01  4.0026603293900344e+01  4.0035865336395617e+01  3.9882311804483358e+01  3.9933660503818679e+01  3.9961267873541537e+01  3.9953007504938583e+01  3.8170216147112995e+01  3.8121159037527995e+01  3.8164591945172617e+01  3.7993801930867697e+01  3.7270256366489498e+01  3.7483125958276077e+01  3.7204340180335706e+01  3.7482777229225206e+01  3.9490974793134626e+01  4.0841394725137349e+01  4.1007939025327573e+01  3.9514829391294299e+01  4.0865310966105802e+01  4.1026478407824648e+01  3.9503498991641088e+01  4.0856324988891238e+01  4.1013249392644155e+01  3.9416994473386758e+01  4.0803261568183842e+01  4.0963835920494311e+01  3.8662076226811443e+01  3.8632048023180644e+01  3.8651975708347393e+01  3.8518775669401450e+01  3.9842823577327096e+01  3.9781677037678499e+01  3.9846656187430682e+01  3.9804706524318185e+01  3.7182829207023140e+01  3.7688327821315220e+01  3.7652636535062655e+01  3.7695424221247613e+01  3.7756542575074093e+01  3.7664606200792690e+01  3.7754586425136047e+01  3.7544168052691880e+01  3.7149517651557360e+01  3.7595521417703601e+01  3.7517969762573486e+01  3.7598580055620864e+01  3.7119964421766070e+01  3.7502949089766496e+01  3.7354174195400084e+01  3.7503937892799328e+01  4.0975548366415872e+01  4.1005459548766197e+01  4.0952407961450731e+01  4.0999014312010246e+01  3.7524648437535049e+01  3.7607845075776687e+01  3.7523385914598421e+01  3.7636727150239885e+01  3.7443294419673293e+01  3.7426458262350607e+01  3.7603925966236297e+01  3.7678093893468812e+01  3.7617047149953130e+01  3.7721775253714782e+01  3.7551813342211219e+01  3.7556900874077705e+01  3.7164619733215353e+01  3.7337117273979892e+01  3.7290925333969746e+01  3.7474178990896867e+01  3.7140444464581378e+01  3.7256857705793074e+01  3.7600621108804425e+01  3.7674244179922120e+01  3.7614555379842663e+01  3.7719070457639262e+01  3.7549761488383020e+01  3.7555542363524097e+01  4.1725752757868484e+01  4.1764662079881703e+01  4.1773832095993306e+01  4.1749392845626268e+01  3.8019750599008439e+01  3.8137914657890882e+01  3.7959083395851650e+01  3.8067102163006609e+01  3.8015956784091742e+01  3.8135616987743127e+01  3.7834738380145289e+01  3.7997368858918215e+01  3.8662708851426110e+01  3.9035905978976146e+01  3.8653866240189984e+01  3.9012137083299422e+01  3.8676557313829584e+01  3.9044567841324003e+01  3.8525258818939406e+01  3.8933616446750698e+01  3.9547865392254678e+01  3.9521227752682314e+01  3.9537333687909950e+01  3.9454419307420778e+01  3.8336551144193962e+01  3.8391212542681608e+01  3.8449291449476576e+01  3.8451868508262784e+01  3.7796960934073873e+01  3.7388051637806022e+01  3.7810481064643142e+01  3.7786177953228410e+01  4.2336883003910273e+01  4.2342558459254406e+01  4.2301593616929004e+01  4.2317691507477093e+01  4.2762665482601847e+01  4.2735077287690409e+01  4.2762317880966798e+01  4.2778109559433744e+01  4.2700256539942480e+01  4.2709255934217282e+01  4.2667684848401151e+01  4.2686138048865793e+01  3.7404284317346814e+01  3.7791420279538151e+01  3.7803041584155686e+01  3.7816328734921754e+01  3.8676121154913886e+01  3.8747225980848889e+01  3.8747244482049268e+01  3.8670279306739801e+01  3.8059234279773513e+01  3.8049106972563230e+01  3.7810005869290364e+01  3.8028433799653499e+01  3.7898433339061725e+01  3.7953849048996332e+01  3.7736323449991154e+01  3.7948875191889009e+01  3.7610778647474412e+01  3.7473364959036459e+01  3.7609818208813053e+01  3.7389520982310451e+01  3.7754742196375560e+01  3.7844866254688533e+01  3.7665842192550393e+01  3.7842792782220364e+01  3.7604866121340478e+01  3.7277497471228195e+01  3.7607037787512674e+01  3.7510203468500841e+01  3.7928723837009713e+01  3.7900502320872093e+01  3.7917133011360285e+01  3.7617771462905708e+01  3.7551270937785254e+01  3.7244785594539721e+01  3.7552464005772407e+01  3.7421606837087801e+01  3.7200532751867065e+01  3.7729215881327399e+01  3.7735520488592137e+01  3.7750857148766805e+01  3.7097279354025503e+01  3.7443146267888956e+01  3.7172613535417831e+01  3.7443237894998369e+01  4.0370633757921688e+01  4.0396231852161065e+01  4.0401697523134509e+01  4.0338091920917947e+01  3.8274514867959518e+01  3.8278462778742778e+01  3.8220141248334222e+01  3.8138382603056051e+01  3.8299281279184122e+01  3.8287944205979592e+01  3.8271942706350629e+01  3.8102306821877583e+01  3.8993378703357699e+01  3.9049974388660395e+01  3.9048655590222609e+01  3.8972643671074152e+01  3.7216908936424758e+01  3.7505958418324447e+01  3.7330456112077336e+01  3.7506475940848034e+01  3.8629296217652104e+01  3.8624635144700619e+01  3.8583053699381793e+01  3.8508543399471947e+01  3.7662545840904230e+01  3.7193164343886735e+01  3.7703225768194599e+01  3.7695483607413784e+01  3.8093747467235382e+01  3.8002961599176707e+01  3.8092998698995757e+01  3.7973611639425314e+01  3.7193521746105404e+01  3.7469995665464900e+01  3.7232232685104023e+01  3.7470063584606933e+01  3.7271175310896759e+01  3.7469849755144750e+01  3.7469260622847479e+01  3.7104317796001801e+01  3.7201289753320587e+01  3.7736180421936766e+01  3.7730230823415582e+01  3.7751613186534414e+01  3.7818739293868752e+01  3.7888968736488152e+01  3.7685126431707623e+01  3.7885519516011811e+01  3.7792650482810608e+01  3.7759272381222615e+01  3.7782958816137139e+01  3.7394387811868015e+01  3.8609126347879233e+01  3.8647453094338452e+01  3.8515579827773536e+01  3.8640146580962934e+01  3.7525459186339120e+01  3.7789643983664675e+01  3.7731043018332016e+01  3.7793972869719511e+01  4.1753248020477912e+01  4.1736967131924786e+01  4.1738468440285743e+01  4.1700403681658891e+01  3.8100138272953259e+01  3.8086567683015005e+01  3.8076334101189182e+01  3.7849217716635806e+01  3.7299742700663209e+01  3.7664278326862032e+01  3.7600220364406994e+01  3.7668103967915499e+01  3.7715201365811780e+01  3.7334166494792910e+01  3.7720833272020833e+01  3.7669646803847584e+01  4.1780861782440844e+01  4.1739787988752333e+01  4.1764769082523031e+01  4.1788706547502734e+01  3.8943428043226533e+01  3.8983559958988536e+01  3.8879685923689181e+01  3.8977306209986097e+01  3.7759443023528647e+01  3.7365368065845182e+01  3.7767520791465515e+01  3.7729178437751663e+01  3.7637017056104220e+01  3.7527327944254480e+01  3.7635251359397479e+01  3.7381684085069679e+01  3.7914428517607405e+01  3.7837637140864551e+01  3.7911938357403635e+01  3.7732221752574773e+01  4.1812497802978598e+01  4.1832840967067618e+01  4.1782246731377960e+01  4.1822362072620912e+01  3.7917581644002603e+01  3.7905644290490713e+01  3.7890506945755000e+01  3.7594935964784462e+01  3.7401522809237029e+01  3.7736222721623662e+01  3.7685918669852846e+01  3.7741497972840342e+01  4.1673787755199385e+01  4.1661188688495322e+01  4.1653424927167144e+01  4.1621126270499445e+01  3.9472672210312581e+01  3.9505639878048697e+01  3.9417739262409661e+01  3.9497866096600937e+01  3.7430941139986324e+01  3.7085792594644801e+01  3.7430884582128158e+01  3.7085703035220426e+01  3.8668475164076455e+01  3.8605877662210560e+01  3.8666858108805990e+01  3.8574711913388626e+01  3.7729898738604597e+01  3.7615967843902411e+01  3.7728900439447884e+01  3.7544099166454096e+01  3.7814686390654728e+01  3.7804156695740843e+01  3.7784157082598334e+01  3.7422436595300148e+01  3.8012237290294657e+01  3.7898184009862703e+01  3.8072453949631324e+01  3.8068295817116102e+01  4.0138951278552447e+01  4.0105511603681443e+01  4.0132517570172205e+01  4.0071886311337373e+01  3.7503753613631190e+01  3.7331466030463176e+01  3.7502997228708189e+01  3.7194554966009115e+01  4.2641938024382313e+01  4.2672693543833454e+01  4.2681523961563137e+01  4.2658514619234033e+01  3.8400092244076077e+01  3.8394085295965063e+01  3.8354869761594514e+01  3.8252485370508253e+01  4.5165270308266358e+01  4.5148328182847933e+01  4.5298746818929573e+01  4.5146001620952013e+01  4.5238516524690212e+01  4.5329572862126319e+01  4.5443414913139883e+01  4.5282079968775349e+01  4.4981767320425654e+01  4.4816048227747281e+01  4.4783671356639438e+01  4.4939495075346478e+01  4.5313522511829497e+01  4.6363062572484637e+01  4.6064094731743566e+01  4.6540442084525054e+01  4.6554778632829084e+01  4.6441945260991432e+01  4.6535034668881416e+01  4.6448332793653670e+01  4.6453091474097668e+01  4.6481313701837777e+01  4.6701732674835824e+01  4.6702720289429820e+01  4.6484244643759986e+01  4.6314412700164361e+01  4.6656407797991299e+01  4.6705830428392375e+01  4.6731712547919706e+01  4.6639813092128733e+01  4.5881170159496293e+01  4.6364774223570386e+01  4.6158446761234522e+01  4.6854149606382002e+01  4.6341734932071923e+01  4.6507124693023371e+01  4.6375372915493081e+01  4.5325414557010106e