<?xml version="1.0"?>
<VTKFile type="UnstructuredGrid"  version="0.1"  >
<UnstructuredGrid>
<Piece  NumberOfPoints="858" NumberOfCells="1634">
<Points>
<DataArray  type="Float64"  NumberOfComponents="3"  format="ascii">0 0 0  0.1 0 0  0.1 0.1 0  0 0.1 0  0.04 0.04 0  0.06 0.04 0  0.06 0.06 0  0.04 0.06 0  0.004999999999990302 0 0  0.009999999999982483 0 0  0.01499999999997171 0 0  0.019999999999956 0 0  0.02499999999994164 0 0  0.02999999999992728 0 0  0.03499999999991292 0 0  0.03999999999989585 0 0  0.0449999999998815 0 0  0.0499999999998685 0 0  0.05499999999988016 0 0  0.05999999999989426 0 0  0.06499999999990864 0 0  0.06999999999991974 0 0  0.07499999999993355 0 0  0.07999999999994738 0 0  0.0849999999999585 0 0  0.08999999999997287 0 0  0.0949999999999878 0 0  0.1 0.004999999999990302 0  0.1 0.009999999999982483 0  0.1 0.01499999999997171 0  0.1 0.019999999999956 0  0.1 0.02499999999994164 0  0.1 0.02999999999992728 0  0.1 0.03499999999991292 0  0.1 0.03999999999989585 0  0.1 0.0449999999998815 0  0.1 0.0499999999998685 0  0.1 0.05499999999988016 0  0.1 0.05999999999989426 0  0.1 0.06499999999990864 0  0.1 0.06999999999991974 0  0.1 0.07499999999993355 0  0.1 0.07999999999994738 0  0.1 0.0849999999999585 0  0.1 0.08999999999997287 0  0.1 0.0949999999999878 0  0.09500000000001382 0.1 0  0.09000000000002764 0.1 0  0.08500000000004147 0.1 0  0.08000000000005529 0.1 0  0.07500000000006912 0.1 0  0.07000000000008294 0.1 0  0.06500000000009676 0.1 0  0.06000000000011058 0.1 0  0.05500000000012441 0.1 0  0.05000000000013687 0.1 0  0.04500000000012466 0.1 0  0.04000000000011003 0.1 0  0.03500000000009511 0.1 0  0.03000000000008349 0.1 0  0.02500000000006912 0.1 0  0.02000000000005478 0.1 0  0.01500000000004312 0.1 0  0.01000000000002821 0.1 0  0.005000000000012744 0.1 0  0 0.09500000000001382 0  0 0.09000000000002764 0  0 0.08500000000004147 0  0 0.08000000000005529 0  0 0.07500000000006912 0  0 0.07000000000008294 0  0 0.06500000000009676 0  0 0.06000000000011058 0  0 0.05500000000012441 0  0 0.05000000000013687 0  0 0.04500000000012466 0  0 0.04000000000011003 0  0 0.03500000000009511 0  0 0.03000000000008349 0  0 0.02500000000006912 0  0 0.02000000000005478 0  0 0.01500000000004312 0  0 0.01000000000002821 0  0 0.005000000000012744 0  0.0424999999999956 0.04 0  0.04499999999998712 0.04 0  0.04749999999997729 0.04 0  0.04999999999997153 0.04 0  0.05249999999997932 0.04 0  0.05499999999998441 0.04 0  0.05749999999999492 0.04 0  0.06 0.0424999999999956 0  0.06 0.04499999999998712 0  0.06 0.04749999999997729 0  0.06 0.04999999999997153 0  0.06 0.05249999999997932 0  0.06 0.05499999999998441 0  0.06 0.05749999999999492 0  0.05750000000000237 0.06 0  0.05500000000001017 0.06 0  0.05250000000001932 0.06 0  0.05000000000002441 0.06 0  0.04750000000002135 0.06 0  0.04500000000001424 0.06 0  0.04250000000000441 0.06 0  0.04 0.05750000000000237 0  0.04 0.05500000000001017 0  0.04 0.05250000000001932 0  0.04 0.05000000000002441 0  0.04 0.04750000000002135 0  0.04 0.04500000000001424 0  0.04 0.04250000000000441 0  0.06187886849276387 0.0457889512301654 0  0.04578895123016581 0.03812113150723647 0  0.05421104876983213 0.06187886849276415 0  0.03812113150723612 0.05421104876983181 0  0.03778047413989571 0.04127747509006384 0  0.037897135916841 0.03870578677238512 0  0.05872252490993572 0.03778047413989539 0  0.06129421322761476 0.03789713591684067 0  0.04127747509006353 0.06221952586010501 0  0.03870578677238387 0.06210286408315968 0  0.06221952586010532 0.05872252490993602 0  0.06210286408315999 0.06129421322761602 0  0.03549185440087531 0.04000137166833496 0  0.03564543614706482 0.03721061549645969 0  0.05999862833166477 0.03549185440087474 0  0.06278938450354028 0.03564543614706427 0  0.04000137166833419 0.06450814559912643 0  0.03721061549645786 0.06435456385293667 0  0.06450814559912699 0.05999862833166555 0  0.0643545638529372 0.06278938450354211 0  0.03297280212560913 0.03863825068796788 0  0.03295887227766713 0.03567307513721269 0  0.06136174931203194 0.03297280212560834 0  0.06432692486278739 0.03295887227766633 0  0.0386382506879665 0.06702719787439348 0  0.03567307513721023 0.06704112772233545 0  0.06702719787439421 0.06136174931203335 0  0.0670411277223362 0.06432692486278985 0  0.06420798626520105 0.06579112966937525 0  0.06706583447830623 0.06744007183514764 0  0.03420887033062492 0.06420798626520047 0  0.03255992816485263 0.06706583447830547 0  0.06579112966937234 0.03579201373480029 0  0.06744007183514408 0.0329341655216962 0  0.03579201373480088 0.03420887033062783 0  0.03293416552169703 0.03255992816485617 0  0.03581938213032206 0.03099905712434335 0  0.06900094287565703 0.03581938213032138 0  0.03099905712433933 0.06418061786967937 0  0.06418061786968006 0.06900094287566108 0  0.06281942061237505 0.03025931850996253 0  0.03025931850996347 0.03718057938762487 0  0.06974068149004092 0.06281942061237708 0  0.03718057938762288 0.06974068149004005 0  0.06967436557688252 0.05970232670585208 0  0.05970232670585106 0.03032563442312104 0  0.04029767329414774 0.06967436557688163 0  0.03032563442312196 0.0402976732941487 0  0.03289862372061571 0.02926628791900492 0  0.07073371208099552 0.03289862372061482 0  0.02926628791900027 0.06710137627938671 0  0.06710137627938757 0.07073371208100018 0  0.03587842040465999 0.02771195097569388 0  0.07228804902430665 0.03587842040465913 0  0.02771195097568903 0.06412157959534159 0  0.06412157959534248 0.07228804902431142 0  0.02748553625790981 0.03880590079606561 0  0.02759114554242047 0.0421943632226905 0  0.0611940992039342 0.02748553625790878 0  0.05780563677730931 0.0275911455424194 0  0.03880590079606408 0.07251446374209461 0  0.04219436322268996 0.07240885445758409 0  0.07251446374209562 0.06119409920393586 0  0.07240885445758519 0.05780563677730995 0  0.0776552776266015 0.004185633553245238 0  0.004185633553245733 0.02234472237340009 0  0.09581436644675542 0.07765527762660331 0  0.02234472237339805 0.09581436644675478 0  0.03297648961029812 0.02580935215302473 0  0.02982134719934618 0.02753251561508388 0  0.0741906478469759 0.03297648961029716 0  0.07246748438491663 0.02982134719934512 0  0.02580935215301899 0.06702351038970422 0  0.02753251561507858 0.07017865280065717 0  0.06702351038970529 0.07419064784698162 0  0.07017865280065823 0.07246748438492182 0  0.03622661085459556 0.02463480489453393 0  0.07536519510546832 0.03622661085459371 0  0.02463480489453014 0.06377338914540509 0  0.06377338914540703 0.07536519510547203 0  0.05946824489433492 0.02454596195972174 0  0.02454596195972274 0.04053175510566483 0  0.07545403804028356 0.0594682448943362 0  0.04053175510566371 0.07545403804028251 0  0.02987459661911368 0.02386679671063077 0  0.07613320328936986 0.02987459661911258 0  0.02386679671062437 0.07012540338088952 0  0.07012540338089082 0.07613320328937617 0  0.05586662221324582 0.02468131126279576 0  0.07531868873720976 0.05586662221324613 0  0.02468131126279685 0.04413337778675408 0  0.04413337778675389 0.07531868873720861 0  0.07430350918264429 0.02663961888517666 0  0.02663961888517796 0.02569649081735628 0  0.07336038111482771 0.07430350918264995 0  0.02569649081735029 0.0733603811148264 0  0.02664731940968077 0.02186977625471112 0  0.07813022374528952 0.02664731940967955 0  0.02186977625470408 0.07335268059032331 0  0.07335268059032482 0.07813022374529628 0  0.0214783969082216 0.04233940057630205 0  0.02158661909521315 0.04598616065811437 0  0.05766059942369771 0.02147839690822072 0  0.05401383934188557 0.02158661909521232 0  0.04233940057630128 0.07852160309178452 0  0.04598616065811446 0.07841338090479308 0  0.07852160309178545 0.05766059942369866 0  0.07841338090479401 0.05401383934188565 0  0.07859542063213966 0.0613228379155465 0  0.03867716208445332 0.07859542063213873 0  0.06132283791554466 0.02140457936786634 0  0.02140457936786728 0.03867716208445496 0  0.07515246830876531 0.0523309727405189 0  0.05233097274051941 0.02484753169124039 0  0.04766902725948128 0.07515246830876417 0  0.02484753169124142 0.04766902725948062 0  0.04273462937805293 0.003990054949471813 0  0.09600994505053267 0.04273462937805227 0  0.003990054949470486 0.05726537062195083 0  0.05726537062195145 0.09600994505053401 0  0.01770256549184465 0.004011717123741483 0  0.09598828287625862 0.01770256549184446 0  0.004011717123739581 0.08229743450816747 0  0.0822974345081678 0.09598828287626039 0  0.0782485034915293 0.05036162634517635 0  0.05036162634517707 0.02175149650847717 0  0.04963837365482404 0.0782485034915284 0  0.02175149650847795 0.04963837365482315 0  0.07622272276644025 0.02323988758801736 0  0.02323988758801874 0.02377727723356038 0  0.02377727723355373 0.07676011241198653 0  0.07676011241198799 0.07622272276644641 0  0.06149042832008576 0.0700106228367553 0  0.02998937716324568 0.06149042832008492 0  0.07001062283675304 0.03850957167991526 0  0.03850957167991603 0.02998937716324819 0  0.05198816810110152 0.0184072632634445 0  0.04818412350633268 0.01856063665800724 0  0.01840726326344501 0.04801183189889857 0  0.01856063665800763 0.05181587649366783 0  0.08159273673656256 0.05198816810110134 0  0.08143936334199994 0.04818412350633171 0  0.04801183189889896 0.08159273673656196 0  0.05181587649366899 0.08143936334199942 0  0.05114932416080831 0.03782935828367837 0  0.0621706417163224 0.05114932416080793 0  0.04885067583919056 0.06217064171632238 0  0.03782935828367834 0.04885067583919024 0  0.06752058444043749 0.003962292751382651 0  0.003962292751382963 0.03247941555956443 0  0.09603770724861867 0.06752058444043864 0  0.0324794155595634 0.0960377072486184 0  0.03298022797863054 0.004883844397499499 0  0.09511615560250361 0.0329802279786301 0  0.06701977202137831 0.09511615560250433 0  0.004883844397498691 0.06701977202137781 0  0.07012896824689349 0.07985269697303315 0  0.0298710317531115 0.02014730302697392 0  0.07985269697302638 0.02987103175310995 0  0.02014730302696712 0.07012896824689165 0  0.081873529831062 0.05943720353259833 0  0.05943720353259675 0.0181264701689448
[...]
<PointData  Scalars="f_554"> 
<DataArray  type="Float64"  Name="f_554"  format="ascii">3.7000000000000000e+01  3.7398949595745300e+01  3.7398982694668810e+01  3.7000000000000000e+01  4.1523554780435632e+01  4.1552743027591056e+01  4.1556026023714161e+01  4.1527136710916579e+01  3.7107502755388211e+01  3.7200857149973942e+01  3.7285085677073702e+01  3.7362832042768062e+01  3.7435695267659732e+01  3.7502429743311758e+01  3.7562050071222799e+01  3.7610506932578538e+01  3.7643359862794199e+01  3.7658265340604110e+01  3.7654454117138968e+01  3.7634879482340679e+01  3.7603421335238437e+01  3.7563327801266233e+01  3.7521020258273680e+01  3.7481114418825157e+01  3.7446968579455451e+01  3.7421113849080648e+01  3.7405115885663207e+01  3.7404985490011057e+01  3.7421343111941226e+01  3.7447762385864763e+01  3.7482349819471445e+01  3.7523056099615040e+01  3.7565984470591893e+01  3.7608055389925518e+01  3.7643618194026494e+01  3.7667025348411244e+01  3.7675036476836468e+01  3.7666216971530801e+01  3.7643017406804766e+01  3.7608945227722764e+01  3.7566988209018511e+01  3.7523350926514446e+01  3.7482506870453356e+01  3.7447720399707485e+01  3.7421453021418337e+01  3.7405220830178017e+01  3.7404947811355925e+01  3.7421076647190695e+01  3.7447092397735936e+01  3.7481046980108978e+01  3.7520827060041853e+01  3.7562429864292618e+01  3.7602632620324719e+01  3.7635583013300540e+01  3.7655357019680174e+01  3.7658347140137138e+01  3.7642620483475909e+01  3.7609957506434029e+01  3.7562989045495534e+01  3.7503417852285295e+01  3.7435971075210873e+01  3.7363043487389142e+01  3.7285042307022742e+01  3.7200841244389039e+01  3.7107561866296322e+01  3.7000000000000000e+01  3.7000000000000000e+01  3.7000000000000000e+01  3.7000000000000000e+01  3.7000000000000000e+01  3.7000000000000000e+01  3.7000000000000000e+01  3.7000000000000000e+01  3.7000000000000000e+01  3.7000000000000000e+01  3.7000000000000000e+01  3.7000000000000000e+01  3.7000000000000000e+01  3.7000000000000000e+01  3.7000000000000000e+01  3.7000000000000000e+01  3.7000000000000000e+01  3.7000000000000000e+01  3.7000000000000000e+01  4.2263596319849427e+01  4.3015048142335374e+01  4.3590593264568028e+01  4.3813285928147074e+01  4.3597404470379736e+01  4.3020031339018004e+01  4.2285491042373408e+01  4.2284250930728149e+01  4.3030762962475862e+01  4.3595321065714316e+01  4.3816465403102903e+01  4.3596748171997667e+01  4.3019483854211444e+01  4.2283562346919993e+01  4.2293590447919769e+01  4.3030605330436195e+01  4.3593320595301229e+01  4.3804231090466665e+01  4.3585156909598197e+01  4.3009499726791582e+01  4.2269392023310154e+01  4.2259040738090945e+01  4.2990995736249253e+01  4.3582429140311646e+01  4.3788550648115631e+01  4.3566782842532852e+01  4.3003076374248579e+01  4.2255185312234012e+01  4.2253752315079254e+01  4.2239875237929958e+01  4.2251499943190943e+01  4.2218410014082053e+01  4.1172286051823853e+01  4.0649847120809049e+01  4.1208033889199257e+01  4.0686271107259593e+01  4.1185406894857337e+01  4.0654321718361530e+01  4.1209723223806840e+01  4.0688164188579911e+01  4.0320997809171089e+01  3.9905794314163558e+01  4.0365591590630885e+01  3.9950862570170756e+01  4.0337685364531438e+01  3.9912606211234511e+01  4.0368055539911488e+01  3.9952398729403320e+01  3.9614696467826711e+01  3.9265486337184214e+01  3.9670565293961552e+01  3.9322163544570174e+01  3.9637628628985311e+01  3.9277755233267989e+01  3.9673359823815481e+01  3.9323754667347004e+01  3.9508466394092366e+01  3.8978627450851391e+01  3.9457025192544585e+01  3.8919758720867875e+01  3.9508287191334240e+01  3.8978264508961352e+01  3.9462939998857209e+01  3.8921129368583905e+01  3.9038142866063161e+01  3.9083906894522691e+01  3.9016409910542777e+01  3.9082705983535469e+01  3.9109642184038670e+01  3.9039840400586762e+01  3.9112623849570085e+01  3.9071538625874389e+01  3.9385493816480079e+01  3.9381043647909898e+01  3.9353790490102568e+01  3.9312400994277560e+01  3.8601945349313155e+01  3.8659178926478923e+01  3.8582917268333688e+01  3.8658385040290582e+01  3.8673279568039391e+01  3.8719021710108180e+01  3.8631529485379644e+01  3.8716602437823816e+01  3.8789040079197157e+01  3.8993898034662898e+01  3.8875253577648664e+01  3.9078455806593439e+01  3.8843331609005766e+01  3.9057252868706776e+01  3.8879792904188911e+01  3.9084966997550332e+01  3.7509205946324670e+01  3.7127686674645297e+01  3.7510946150364646e+01  3.7407199054801602e+01  3.8328311640919814e+01  3.8258123689369270e+01  3.8384856346105039e+01  3.8329384518467428e+01  3.8285841890904202e+01  3.8244196102281563e+01  3.8383010406265463e+01  3.8329010177048531e+01  3.8410181490133290e+01  3.8454715250371976e+01  3.8344337332818320e+01  3.8451238690001034e+01  3.8627723301015500e+01  3.8520099405341853e+01  3.8634001578971976e+01  3.8601819314386560e+01  3.8049669455043173e+01  3.8119623058771701e+01  3.8008323895736105e+01  3.8118315408162424e+01  3.8763244433039176e+01  3.8772068276567502e+01  3.8657975433634377e+01  3.8747833978808103e+01  3.8070289859912030e+01  3.7981790106221418e+01  3.8070248179323258e+01  3.7975297693932305e+01  3.7826698967049857e+01  3.7913136903357959e+01  3.7788673809309977e+01  3.7912276125951280e+01  3.8254441760706143e+01  3.8333898914588495e+01  3.8389802575389311e+01  3.8466663385954696e+01  3.8369656313543025e+01  3.8456462863477903e+01  3.8397958756380440e+01  3.8477831446617337e+01  3.8291398664688565e+01  3.8254274596782309e+01  3.8285569961263235e+01  3.8149620273424226e+01  3.8867464085122890e+01  3.8855362728824794e+01  3.8849408781017196e+01  3.8754080770308967e+01  3.7650443155120001e+01  3.7678068981080685e+01  3.7182168521327043e+01  3.7668224876450708e+01  3.7333946676469068e+01  3.7472534277819676e+01  3.7109765744857761e+01  3.7471602171521077e+01  3.8522476994787979e+01  3.8507379528990704e+01  3.8506576324049860e+01  3.8379721382623735e+01  3.7869366924302213e+01  3.7759115670929205e+01  3.7763666123468205e+01  3.7869606998252486e+01  3.9181506674541716e+01  3.9110137563525477e+01  3.9184286703684570e+01  3.9147252216086962e+01  3.8216724240630384e+01  3.8223842294740749e+01  3.8048812627952614e+01  3.8062654812029720e+01  3.8230470430626148e+01  3.8242287967082241e+01  3.8211856545035758e+01  3.8228509267863387e+01  4.2453768446471173e+01  4.2458413479696617e+01  4.2447045874306504e+01  4.2422897116312853e+01  3.7598594003118812e+01  3.7153419389330359e+01  3.7603056555088230e+01  3.7548751870062908e+01  3.7561485600419331e+01  3.7614064473473164e+01  3.7609555835223432e+01  3.7190270694608010e+01  3.7941877517681462e+01  3.7875149157436432e+01  3.7943914120303738e+01  3.7799250444621720e+01  3.8117034865757638e+01  3.8109555387451564e+01  3.8084662309828786e+01  3.7936056808769436e+01  3.7851682701905098e+01  3.8023629718708044e+01  3.7986105846731505e+01  3.8028895866331546e+01  3.7645563618315528e+01  3.7752719519978491e+01  3.7613394117321100e+01  3.7752226525395741e+01  3.7577027581996909e+01  3.7714435680630942e+01  3.7595763163100521e+01  3.7714837347056267e+01  3.7439388536940974e+01  3.7102723040932375e+01  3.7439872665793104e+01  3.7250853456286109e+01  3.7792950921243332e+01  3.8007799646880756e+01  3.8008106475908775e+01  3.8024293336796106e+01  3.7998232503782411e+01  3.7793500288297693e+01  3.8020324495376769e+01  3.8008445067549260e+01  3.7499434037551836e+01  3.7556695706078813e+01  3.7632443389994030e+01  3.7659455146327531e+01  3.7632228202869719e+01  3.7658365229592924e+01  3.7476517495759332e+01  3.7473949465369707e+01  3.8883219854264759e+01  3.9355824414888410e+01  3.8899745515602390e+01  3.9368922612937887e+01  3.8787689129493351e+01  3.9279722746274061e+01  3.8886635770915269e+01  3.9354374249908858e+01  3.7199889684870655e+01  3.7671340886304009e+01  3.7681097842188912e+01  3.7653205695345967e+01  4.0761420253320367e+01  4.0784668555445371e+01  4.0807238480570099e+01  4.0804115862753825e+01  3.8670367216827344e+01  3.8623332372218599e+01  3.8667372736777672e+01  3.8580854636517351e+01  4.1217868706045280e+01  4.1191727245349099e+01  4.1219984350964246e+01  4.1182356129463187e+01  3.7816693199948190e+01  3.7815396146295491e+01  3.7727360978233669e+01  3.7672690321953525e+01  3.7431524280603085e+01  3.7378859903795501e+01  3.7603271194642794e+01  3.7544594558537575e+01  3.7470948826261761e+01  3.7370154862113502e+01  3.7603797645262631e+01  3.7544580248887122e+01  3.7679011075298448e+01  3.7614910919502506e+01  3.7901474715623422e+01  3.7832795078817476e+01  3.7871475061366752e+01  3.7788671610568443e+01  3.7908239452596163e+01  3.7837504461532845e+01  3.9345516885346925e+01  3.8862870396713561e+01  3.9275462801919055e+01  3.8776709540475281e+01  3.9363404787879517e+01  3.8885229186874341e+01  3.9353066150716735e+01  3.8876067135898225e+01  3.9979054280742361e+01  3.9908670955484311e+01  3.9990444361993262e+01  3.9916203558650359e+01  3.9920599534279049e+01  3.9847287985944135e+01  3.9976816058548827e+01  3.9897126454600226e+01  3.9924198929909430e+01  3.9940137387606192e+01  3.9869663376989351e+01  3.9930414116304220e+01  3.7570642809757572e+01  3.7847029303564248e+01  3.7852483701987431e+01  3.7866499885502400e+01  3.8214474655443006e+01  3.7983854005998147e+01  3.8224324183391737e+01  3.7992380454281765e+01  3.8199464812014419e+01  3.7962881533707574e+01  3.8049617154268113e+01  3.7773134112129249e+01  3.7525424691020426e+01  3.7308784518966412e+01  3.7526018840248533e+01  3.7379220888163047e+01  3.7848331715236704e+01  3.7564075666651632e+01  3.7862918064499198e+01  3.7844110683378396e+01  3.7587041670401639e+01  3.7361697322664618e+01  3.7588387328403158e+01  3.7481490936565031e+01  3.8121684773642990e+01  3.8033836296831893e+01  3.8170897922655591e+01  3.8167017161617274e+01  3.7276945904060589e+01  3.7483480022583365e+01  3.7288064673379793e+01  3.7483590249126500e+01  3.7754979358402572e+01  3.7471537553974287e+01  3.7760973708261574e+01  3.7719180096809588e+01  3.7107073909333828e+01  3.7418161067694150e+01  3.7164789796928595e+01  3.7418246525745516e+01  3.8247774809630982e+01  3.8176436892053225e+01  3.8246615959500168e+01  3.8154170773541964e+01  3.7810519596539152e+01  3.7802176206079338e+01  3.7778906150319401e+01  3.7514644415239694e+01  3.7423366762921290e+01  3.7698958782988704e+01  3.7647542336870792e+01  3.7703102529878457e+01  3.8196896996655177e+01  3.7944996914022674e+01  3.7824281287887487e+01  3.7781169262355938e+01  3.8162850555186502e+01  3.7905607334789821e+01  3.7789652174622063e+01  3.7735853391814061e+01  3.8190342038182997e+01  3.7939086574812634e+01  3.7816962125472607e+01  3.7775969528928606e+01  3.8035442822094588e+01  3.7736306502006606e+01  3.7548825360054543e+01  3.7518336469565249e+01  3.7739969961775472e+01  3.7367030796149486e+01  3.7757072007322655e+01  3.7740801340079599e+01  3.7761211376674495e+01  3.7696642251506823e+01  3.7758055847067389e+01  3.7546704642912523e+01  4.0645442326451928e+01  4.0454212205194786e+01  4.0631240385767967e+01  4.0432992168650912e+01  4.0637139583428564e+01  4.0450061703023309e+01  4.0589597664675381e+01  4.0399508036900457e+01  3.7644290925786088e+01  3.7569224850261726e+01  3.7641625353033682e+01  3.7382706312167819e+01  3.7356736475024093e+01  3.7665187661879770e+01  3.7699061789667816e+01  3.7705344731195503e+01  4.0173728199323840e+01  4.0128077257741325e+01  4.0173632530144069e+01  4.0139002349975499e+01  3.7341274312708727e+01  3.7500913745776444e+01  3.7500514019801237e+01  3.7270905797192206e+01  3.9674368429370915e+01  3.9719055816149286e+01  3.9738310207847150e+01  3.9743525255504238e+01  3.9608910688313891e+01  3.9657754881438194e+01  3.9681073660391846e+01  3.9674622539303762e+01  3.8067126809215758e+01  3.8021714492507904e+01  3.8062670490424566e+01  3.7903854401317744e+01  3.7252929648703130e+01  3.7452543014290853e+01  3.7191312425848679e+01  3.7452337351816560e+01  3.9266795871874841e+01  4.0493553175006767e+01  4.0686513189513526e+01  3.9286834063667783e+01  4.0512019453403170e+01  4.0699323878431343e+01  3.9277442276133726e+01  4.0506060184176356e+01  4.0690033769392699e+01  3.9197159096512706e+01  4.0456448616209158e+01  4.0643771938970410e+01  3.8511611614674528e+01  3.8484293062506097e+01  3.8503635077790079e+01  3.8379489871591609e+01  3.9544556975842958e+01  3.9486782889207824e+01  3.9545807921389006e+01  3.9507573923276176e+01  3.7168493830957694e+01  3.7636785922773242e+01  3.7603627408918115e+01  3.7643341347223050e+01  3.7696836678939512e+01  3.7611100103165818e+01  3.7694916722803029e+01  3.7499127280269811e+01  3.7138491885800832e+01  3.7553278028392405e+01  3.7480840608382557e+01  3.7556149835196400e+01  3.7112123394526336e+01  3.7470306642361784e+01  3.7330904258613792e+01  3.7471297760410621e+01  4.0545086723154533e+01  4.0571357986561296e+01  4.0524095592018213e+01  4.0570237268910979e+01  3.7486743337478963e+01  3.7561601917185286e+01  3.7484830722611292e+01  3.7586470216088863e+01  3.7412509093976126e+01  3.7396409156621601e+01  3.7560836891326943e+01  3.7627160900339057e+01  3.7572368104102445e+01  3.7665817824070984e+01  3.7514081748873622e+01  3.7518489612516476e+01  3.7152406972440360e+01  3.7310469087681327e+01  3.7268851905081171e+01  3.7435658575400730e+01  3.7130592770556781e+01  3.7238482328160465e+01  3.7558022296119077e+01  3.7623899987010482e+01  3.7570302427484677e+01  3.7663625553811279e+01  3.7512377365255198e+01  3.7517413596775668e+01  4.1231597039650559e+01  4.1272497597810215e+01  4.1273746883102412e+01  4.1253516264801810e+01  3.7932233948970911e+01  3.8036634185995396e+01  3.7875968940276742e+01  3.7970894301938934e+01  3.7928668745700918e+01  3.8034338406050473e+01  3.7760425027655671e+01  3.7905939162402483e+01  3.8516102192123292e+01  3.8846589850178951e+01  3.8507104377657228e+01  3.8823416426434171e+01  3.8527548084601854e+01  3.8852768775822923e+01  3.8388049311684853e+01  3.8750842048643989e+01  3.9310372877507348e+01  3.9286831880462032e+01  3.9303223379799761e+01  3.9225051663613883e+01  3.8208706753779076e+01  3.8259792632930889e+01  3.8313321136529936e+01  3.8315901895166085e+01  3.7734569340763450e+01  3.7356222573871314e+01  3.7747024445412755e+01  3.7724775326933106e+01  4.1746663420316757e+01  4.1748096894933951e+01  4.1713962341927555e+01  4.1731126077331844e+01  4.2406329066004417e+01  4.2380073726875295e+01  4.2404539907213341e+01  4.2412994360259944e+01  4.2223529251024672e+01  4.2225873436214613e+01  4.2192113611242220e+01  4.2212476575779966e+01  3.7371060191918311e+01  3.7729174677077268e+01  3.7740323913309624e+01  3.7752229739115350e+01  3.8509904988123935e+01  3.8575320566695126e+01  3.8575970555045117e+01  3.8504036523797318e+01  3.7970195499694931e+01  3.7960968765843603e+01  3.7739492784189729e+01  3.7942066277659791e+01  3.7822169649888657e+01  3.7873649524603017e+01  3.7672042081059494e+01  3.7869584214627935e+01  3.7566479711772537e+01  3.7438046398228060e+01  3.7565784791740263e+01  3.7360104725041865e+01  3.7691345090521246e+01  3.7775302895251791e+01  3.7608976402382183e+01  3.7773748687667030e+01  3.7561447792881381e+01  3.7256580845081523e+01  3.7563523834570908e+01  3.7473014536686911e+01  3.7853071745909084e+01  3.7826990472874819e+01  3.7842870223045693e+01  3.7565368537498117e+01  3.7513454103662781e+01  3.7227338690488018e+01  3.7514642783634734e+01  3.7392145839833113e+01  3.7184573104921469e+01  3.7673418332637787e+01  3.7679568136108550e+01  3.7693461425678926e+01  3.7091750878943508e+01  3.7416836211669057e+01  3.7162595113775872e+01  3.7417007432436726e+01  4.0027165736499811e+01  4.0049666946942843e+01  4.0053778779281252e+01  3.9995600593065937e+01  3.8159310298791631e+01  3.8162192049390477e+01  3.8108173686683521e+01  3.8032598361045238e+01  3.8186458747884714e+01  3.8176237347862077e+01  3.8161820275127994e+01  3.8004275444295637e+01  3.8791567826981357e+01  3.8843871795829955e+01  3.8842149726667529e+01  3.8771737927250683e+01  3.7202428367410633e+01  3.7472938667026419e+01  3.7308530737127406e+01  3.7473511571866290e+01  3.8476218744792106e+01  3.8471937800224445e+01  3.8433840803587273e+01  3.8364260484119939e+01  3.7612436690553061e+01  3.7177978017345282e+01  3.7650303659074495e+01  3.7643465078075046e+01  3.7996745379937380e+01  3.7912282478639867e+01  3.7995763783669069e+01  3.7884803668672255e+01  3.7181478591132340e+01  3.7440812750178232e+01  3.7217779386995382e+01  3.7440972870944300e+01  3.7254258214816993e+01  3.7440707895950979e+01  3.7440282413144303e+01  3.7097963300411891e+01  3.7185258434744846e+01  3.7679902257980750e+01  3.7674595990207031e+01  3.7694160098637276e+01  3.7749749496500989e+01  3.7815109030722084e+01  3.7625961126069392e+01  3.7812363389131633e+01  3.7730678349335875e+01  3.7699697452643584e+01  3.7722109309184788e+01  3.7362052297653953e+01  3.8459873847466021e+01  3.8494990985893907e+01  3.8373386227537267e+01  3.8489529149284600e+01  3.7481566680636739e+01  3.7727103335467135e+01  3.7672101479363597e+01  3.7730714220089126e+01  4.1404964015414109e+01  4.1395423961833053e+01  4.1395309813519823e+01  4.1359599109360509e+01  3.8007608738278748e+01  3.7995244072026736e+01  3.7986114519213345e+01  3.7775493456046036e+01  3.7276193163072449e+01  3.7614817106692541e+01  3.7555097168722064e+01  3.7618389555450719e+01  3.7660663533900788e+01  3.7307276249200370e+01  3.7665875210809126e+01  3.7618298280890713e+01  4.1333964617764018e+01  4.1295291322591019e+01  4.1320734554040648e+01  4.1337630399957483e+01  3.8755985271568932e+01  3.8792649450287556e+01  3.8697176223707515e+01  3.8788493981244841e+01  3.7700611955020470e+01  3.7335569551185110e+01  3.7708054528358154e+01  3.7672577992472554e+01  3.7590016258826360e+01  3.7487526846049107e+01  3.7588616209651349e+01  3.7352200094295803e+01  3.7837737654963405e+01  3.7766293412476969e+01  3.7835318059163953e+01  3.7668292120483137e+01  4.1439535543795280e+01  4.1453163261008775e+01  4.1409169337485899e+01  4.1447435990282358e+01  3.7843195934914000e+01  3.7832251266371294e+01  3.7818444617509009e+01  3.7544609712456328e+01  3.7368812218488529e+01  3.7679603863681436e+01  3.7632342922885158e+01  3.7684123386900801e+01  4.1262740109763136e+01  4.1257813935723291e+01  4.1247301094320484e+01  4.1217378041770026e+01  3.9232682515998384e+01  3.9262310010828806e+01  3.9182020798733646e+01  3.9257545512213291e+01  3.7405932267271282e+01  3.7081100030034563e+01  3.7405967092715407e+01  3.7081018035813770e+01  3.8507115299757025e+01  3.8449171654468891e+01  3.8505260335157040e+01  3.8419806549786344e+01  3.7672875146042635e+01  3.7566553829551154e+01  3.7671801289684645e+01  3.7499648494698981e+01  3.7750623283849563e+01  3.7740936626097465e+01  3.7722528536567680e+01  3.7387558608965684e+01  3.7923074148775171e+01  3.7817508107153024e+01  3.7978967930546411e+01  3.7975732475733658e+01  3.9815585301671085e+01  3.9785696502104365e+01  3.9812888173517862e+01  3.9754917953495934e+01  3.7470987775993358e+01  3.7309516052248711e+01  3.7470426729788450e+01  3.7181675220418185e+01  4.1990390161683059e+01  4.2027548725063966e+01  4.2025587528242234e+01  4.2006544631476871e+01  3.8272524863322573e+01  3.8267949728571914e+01  3.8230817672938890e+01  3.8136132781608488e+01  4.5485372399843456e+01  4.5483634576110177e+01  4.5732312714409886e+01  4.5456768914815783e+01  4.4708861199471698e+01  4.4788125419491038e+01  4.5005780744538569e+01  4.4711921653006378e+01  4.3824134470623363e+01  4.3686542671563060e+01  4.3668575564943474e+01  4.3809077656950599e+01  4.4757307131013789e+01  4.7530229522100484e+01  4.8315433077932546e+01  5.1855660338078145e+01  5.1787767167808852e+01  5.6308960783778574e+01  5.4088024855283734e+01  5.6197743081563367e+01  5.6071801934971681e+01  5.3379168968236897e+01  5.1573859653559261e+01  5.1517991605776075e+01  5.1618780454314717e+01  4.8928984808770423e+01  4.8050344738999520e+01  4.7409746412344155e+01  4.7484245568043754e+01  4.8004852991729180e+01  4.7379567399582918e+01  4.9104077215079343e+01  4.6068856997630483e+01  4.8761242045953892e+01  4.5598361907307826e+01  4.5820677450631408e+01  4.7446857287632618e+01  4.473514930665084